# vtk DataFile Version 3.0
Profil1.mod
ASCII
DATASET UNSTRUCTURED_GRID
POINTS 624 float
356929.0119032925 5686395.308357993 -0.0
356929.0119032925 5686395.308357993 -1.11
356933.0 5686395.0 -0.0
356933.0 5686395.0 -1.11
356936.9880967075 5686394.691642007 -0.0
356936.9880967075 5686394.691642007 -1.11
356940.97619341494 5686394.383284015 -0.0
356940.97619341494 5686394.383284015 -1.11
356944.96429012244 5686394.0749260215 -0.0
356944.96429012244 5686394.0749260215 -1.11
356948.95238682994 5686393.766568028 -0.0
356948.95238682994 5686393.766568028 -1.11
356952.94048353744 5686393.458210036 -0.0
356952.94048353744 5686393.458210036 -1.11
356956.9285802449 5686393.149852043 -0.0
356956.9285802449 5686393.149852043 -1.11
356960.9166769524 5686392.84149405 -0.0
356960.9166769524 5686392.84149405 -1.11
356964.9047736599 5686392.533136058 -0.0
356964.9047736599 5686392.533136058 -1.11
356968.8928703674 5686392.2247780645 -0.0
356968.8928703674 5686392.2247780645 -1.11
356972.88096707483 5686391.916420071 -0.0
356972.88096707483 5686391.916420071 -1.11
356976.86906378233 5686391.608062078 -0.0
356976.86906378233 5686391.608062078 -1.11
356980.85716048983 5686391.299704086 -0.0
356980.85716048983 5686391.299704086 -1.11
356984.8452571973 5686390.991346093 -0.0
356984.8452571973 5686390.991346093 -1.11
356988.8333539048 5686390.6829881 -0.0
356988.8333539048 5686390.6829881 -1.11
356992.8214506123 5686390.374630108 -0.0
356992.8214506123 5686390.374630108 -1.11
356996.8095473198 5686390.066272114 -0.0
356996.8095473198 5686390.066272114 -1.11
357000.7976440272 5686389.757914121 -0.0
357000.7976440272 5686389.757914121 -1.11
357004.7857407347 5686389.449556129 -0.0
357004.7857407347 5686389.449556129 -1.11
357008.7738374422 5686389.141198136 -0.0
357008.7738374422 5686389.141198136 -1.11
357012.76193414966 5686388.832840143 -0.0
357012.76193414966 5686388.832840143 -1.11
357016.75003085716 5686388.524482151 -0.0
357016.75003085716 5686388.524482151 -1.11
357020.73812756466 5686388.216124157 -0.0
357020.73812756466 5686388.216124157 -1.11
357024.72622427216 5686387.907766164 -0.0
357024.72622427216 5686387.907766164 -1.11
357028.7143209796 5686387.599408172 -0.0
357028.7143209796 5686387.599408172 -1.11
357032.7024176871 5686387.291050179 -0.0
357032.7024176871 5686387.291050179 -1.11
357036.6905143946 5686386.982692186 -0.0
357036.6905143946 5686386.982692186 -1.11
357040.6786111021 5686386.674334194 -0.0
357040.6786111021 5686386.674334194 -1.11
357044.66670780955 5686386.3659762 -0.0
357044.66670780955 5686386.3659762 -1.11
357048.65480451705 5686386.057618207 -0.0
357048.65480451705 5686386.057618207 -1.11
357052.64290122455 5686385.749260214 -0.0
357052.64290122455 5686385.749260214 -1.11
357056.630997932 5686385.440902222 -0.0
357056.630997932 5686385.440902222 -1.11
357060.6190946395 5686385.132544229 -0.0
357060.6190946395 5686385.132544229 -1.11
357064.607191347 5686384.824186236 -0.0
357064.607191347 5686384.824186236 -1.11
357068.5952880545 5686384.515828243 -0.0
357068.5952880545 5686384.515828243 -1.11
357072.58338476194 5686384.20747025 -0.0
357072.58338476194 5686384.20747025 -1.11
357076.57148146944 5686383.899112257 -0.0
357076.57148146944 5686383.899112257 -1.11
357080.55957817694 5686383.590754265 -0.0
357080.55957817694 5686383.590754265 -1.11
357084.5476748844 5686383.282396272 -0.0
357084.5476748844 5686383.282396272 -1.11
357088.5357715919 5686382.974038279 -0.0
357088.5357715919 5686382.974038279 -1.11
357092.5238682994 5686382.6656802865 -0.0
357092.5238682994 5686382.6656802865 -1.11
357096.5119650069 5686382.357322293 -0.0
357096.5119650069 5686382.357322293 -1.11
357100.5000617143 5686382.0489643 -0.0
357100.5000617143 5686382.0489643 -1.11
357104.4881584218 5686381.740606308 -0.0
357104.4881584218 5686381.740606308 -1.11
357108.4762551293 5686381.432248315 -0.0
357108.4762551293 5686381.432248315 -1.11
357112.4643518368 5686381.123890322 -0.0
357112.4643518368 5686381.123890322 -1.11
357116.45244854427 5686380.8155323295 -0.0
357116.45244854427 5686380.8155323295 -1.11
357120.44054525177 5686380.507174336 -0.0
357120.44054525177 5686380.507174336 -1.11
357124.42864195927 5686380.198816343 -0.0
357124.42864195927 5686380.198816343 -1.11
357128.4167386667 5686379.89045835 -0.0
357128.4167386667 5686379.89045835 -1.11
357132.4048353742 5686379.582100358 -0.0
357132.4048353742 5686379.582100358 -1.11
356929.0119032925 5686395.308357993 -2.21
356933.0 5686395.0 -2.21
356936.9880967075 5686394.691642007 -2.21
356940.97619341494 5686394.383284015 -2.21
356944.96429012244 5686394.0749260215 -2.21
356948.95238682994 5686393.766568028 -2.21
356952.94048353744 5686393.458210036 -2.21
356956.9285802449 5686393.149852043 -2.21
356960.9166769524 5686392.84149405 -2.21
356964.9047736599 5686392.533136058 -2.21
356968.8928703674 5686392.2247780645 -2.21
356972.88096707483 5686391.916420071 -2.21
356976.86906378233 5686391.608062078 -2.21
356980.85716048983 5686391.299704086 -2.21
356984.8452571973 5686390.991346093 -2.21
356988.8333539048 5686390.6829881 -2.21
356992.8214506123 5686390.374630108 -2.21
356996.8095473198 5686390.066272114 -2.21
357000.7976440272 5686389.757914121 -2.21
357004.7857407347 5686389.449556129 -2.21
357008.7738374422 5686389.141198136 -2.21
357012.76193414966 5686388.832840143 -2.21
357016.75003085716 5686388.524482151 -2.21
357020.73812756466 5686388.216124157 -2.21
357024.72622427216 5686387.907766164 -2.21
357028.7143209796 5686387.599408172 -2.21
357032.7024176871 5686387.291050179 -2.21
357036.6905143946 5686386.982692186 -2.21
357040.6786111021 5686386.674334194 -2.21
357044.66670780955 5686386.3659762 -2.21
357048.65480451705 5686386.057618207 -2.21
357052.64290122455 5686385.749260214 -2.21
357056.630997932 5686385.440902222 -2.21
357060.6190946395 5686385.132544229 -2.21
357064.607191347 5686384.824186236 -2.21
357068.5952880545 5686384.515828243 -2.21
357072.58338476194 5686384.20747025 -2.21
357076.57148146944 5686383.899112257 -2.21
357080.55957817694 5686383.590754265 -2.21
357084.5476748844 5686383.282396272 -2.21
357088.5357715919 5686382.974038279 -2.21
357092.5238682994 5686382.6656802865 -2.21
357096.5119650069 5686382.357322293 -2.21
357100.5000617143 5686382.0489643 -2.21
357104.4881584218 5686381.740606308 -2.21
357108.4762551293 5686381.432248315 -2.21
357112.4643518368 5686381.123890322 -2.21
357116.45244854427 5686380.8155323295 -2.21
357120.44054525177 5686380.507174336 -2.21
357124.42864195927 5686380.198816343 -2.21
357128.4167386667 5686379.89045835 -2.21
357132.4048353742 5686379.582100358 -2.21
356929.0119032925 5686395.308357993 -3.3
356933.0 5686395.0 -3.3
356936.9880967075 5686394.691642007 -3.3
356940.97619341494 5686394.383284015 -3.3
356944.96429012244 5686394.0749260215 -3.3
356948.95238682994 5686393.766568028 -3.3
356952.94048353744 5686393.458210036 -3.3
356956.9285802449 5686393.149852043 -3.3
356960.9166769524 5686392.84149405 -3.3
356964.9047736599 5686392.533136058 -3.3
356968.8928703674 5686392.2247780645 -3.3
356972.88096707483 5686391.916420071 -3.3
356976.86906378233 5686391.608062078 -3.3
356980.85716048983 5686391.299704086 -3.3
356984.8452571973 5686390.991346093 -3.3
356988.8333539048 5686390.6829881 -3.3
356992.8214506123 5686390.374630108 -3.3
356996.8095473198 5686390.066272114 -3.3
357000.7976440272 5686389.757914121 -3.3
357004.7857407347 5686389.449556129 -3.3
357008.7738374422 5686389.141198136 -3.3
357012.76193414966 5686388.832840143 -3.3
357016.75003085716 5686388.524482151 -3.3
357020.73812756466 5686388.216124157 -3.3
357024.72622427216 5686387.907766164 -3.3
357028.7143209796 5686387.599408172 -3.3
357032.7024176871 5686387.291050179 -3.3
357036.6905143946 5686386.982692186 -3.3
357040.6786111021 5686386.674334194 -3.3
357044.66670780955 5686386.3659762 -3.3
357048.65480451705 5686386.057618207 -3.3
357052.64290122455 5686385.749260214 -3.3
357056.630997932 5686385.440902222 -3.3
357060.6190946395 5686385.132544229 -3.3
357064.607191347 5686384.824186236 -3.3
357068.5952880545 5686384.515828243 -3.3
357072.58338476194 5686384.20747025 -3.3
357076.57148146944 5686383.899112257 -3.3
357080.55957817694 5686383.590754265 -3.3
357084.5476748844 5686383.282396272 -3.3
357088.5357715919 5686382.974038279 -3.3
357092.5238682994 5686382.6656802865 -3.3
357096.5119650069 5686382.357322293 -3.3
357100.5000617143 5686382.0489643 -3.3
357104.4881584218 5686381.740606308 -3.3
357108.4762551293 5686381.432248315 -3.3
357112.4643518368 5686381.123890322 -3.3
357116.45244854427 5686380.8155323295 -3.3
357120.44054525177 5686380.507174336 -3.3
357124.42864195927 5686380.198816343 -3.3
357128.4167386667 5686379.89045835 -3.3
357132.4048353742 5686379.582100358 -3.3
356929.0119032925 5686395.308357993 -4.4
356933.0 5686395.0 -4.4
356936.9880967075 5686394.691642007 -4.4
356940.97619341494 5686394.383284015 -4.4
356944.96429012244 5686394.0749260215 -4.4
356948.95238682994 5686393.766568028 -4.4
356952.94048353744 5686393.458210036 -4.4
356956.9285802449 5686393.149852043 -4.4
356960.9166769524 5686392.84149405 -4.4
356964.9047736599 5686392.533136058 -4.4
356968.8928703674 5686392.2247780645 -4.4
356972.88096707483 5686391.916420071 -4.4
356976.86906378233 5686391.608062078 -4.4
356980.85716048983 5686391.299704086 -4.4
356984.8452571973 5686390.991346093 -4.4
356988.8333539048 5686390.6829881 -4.4
356992.8214506123 5686390.374630108 -4.4
356996.8095473198 5686390.066272114 -4.4
357000.7976440272 5686389.757914121 -4.4
357004.7857407347 5686389.449556129 -4.4
357008.7738374422 5686389.141198136 -4.4
357012.76193414966 5686388.832840143 -4.4
357016.75003085716 5686388.524482151 -4.4
357020.73812756466 5686388.216124157 -4.4
357024.72622427216 5686387.907766164 -4.4
357028.7143209796 5686387.599408172 -4.4
357032.7024176871 5686387.291050179 -4.4
357036.6905143946 5686386.982692186 -4.4
357040.6786111021 5686386.674334194 -4.4
357044.66670780955 5686386.3659762 -4.4
357048.65480451705 5686386.057618207 -4.4
[...]
CELL_DATA 561
SCALARS rho float 1
LOOKUP_TABLE default
39.23
56.28
80.16
62.83
39.5
35.59
30.72
35.0
30.9
33.34
30.81
34.81
35.6
29.16
27.29
33.25
46.29
45.93
48.25
45.28
67.58
91.31
82.76
70.36
70.08
90.23
93.05
117.24
98.21
49.81
35.49
31.84
24.22
14.33
23.86
32.13
31.11
44.09
47.52
46.16
46.22
51.91
45.33
49.9
62.78
84.78
108.98
62.35
56.48
53.25
42.38
38.33
38.0
45.86
43.83
37.13
34.31
34.59
37.23
38.19
42.09
46.43
54.9
50.24
45.31
45.64
52.35
75.26
84.67
71.22
56.94
57.08
47.41
44.04
45.33
39.27
38.17
50.26
44.8
33.81
29.39
33.19
57.92
43.55
35.99
92.3
167.7
144.45
151.76
70.21
32.74
39.28
52.94
53.05
48.73
44.13
49.48
57.26
55.62
57.53
48.36
43.82
39.03
31.92
31.76
32.11
30.87
29.83
32.71
36.98
39.86
43.69
51.73
63.42
62.39
62.34
66.22
73.95
97.09
107.07
86.56
65.99
54.09
39.23
35.51
36.03
30.39
29.42
39.98
34.53
28.78
35.21
54.81
106.3
90.11
87.13
220.91
447.68
446.36
367.84
122.47
42.37
42.65
54.18
52.52
43.23
36.61
39.53
44.96
49.35
51.23
45.59
45.65
46.18
34.86
29.67
28.52
27.9
27.68
31.05
35.8
38.3
40.62
47.49
58.09
62.32
67.11
73.16
79.23
91.97
94.29
77.4
60.5
48.16
36.69
33.62
33.28
29.46
30.41
39.94
37.55
36.7
53.9
96.68
175.12
167.71
173.48
365.86
715.75
811.82
603.26
201.47
68.77
56.01
60.65
54.66
43.67
38.08
40.85
45.05
47.93
48.57
47.15
50.46
65.68
47.88
36.2
31.69
29.8
29.26
31.99
35.73
36.66
36.82
40.61
47.73
53.17
59.24
64.74
67.63
70.79
67.74
56.86
46.95
39.68
33.92
33.07
33.48
31.76
34.2
42.66
43.22
47.82
76.69
144.65
247.31
261.69
280.72
491.69
872.97
1037.84
757.62
286.74
108.49
77.87
73.75
63.42
51.35
46.35
48.77
51.32
51.94
52.3
54.6
60.93
112.24
80.4
55.64
43.85
38.31
35.87
36.78
38.21
36.68
34.33
34.89
38.35
42.37
47.22
51.03
51.71
50.55
46.41
40.22
35.78
33.54
32.96
35.33
37.82
38.11
41.12
47.57
49.2
57.77
94.88
180.1
299.98
344.9
380.13
572.18
901.9
1059.55
787.73
349.74
153.41
106.0
93.4
79.77
66.98
62.01
63.37
63.78
62.67
64.05
70.89
81.38
222.92
160.86
105.82
75.71
60.22
52.05
48.45
45.49
40.29
35.03
32.63
33.1
35.17
38.36
40.85
40.9
39.05
35.94
33.02
32.34
34.33
38.91
46.15
52.51
54.87
56.74
58.82
58.56
68.18
107.41
195.51
318.79
394.21
447.65
594.26
816.52
907.74
696.2
369.64
193.96
137.59
118.8
104.24
92.25
87.31
86.95
85.39
84.23
89.13
103.06
119.92
475.92
356.74
234.74
157.77
114.6
89.83
74.66
62.84
51.51
42.18
36.62
34.59
35.06
37.15
39.31
40.04
39.42
38.43
38.77
42.48
50.93
64.82
82.83
97.77
102.24
98.2
89.97
82.86
90.12
127.45
209.09
324.55
419.1
487.67
585.6
698.18
715.76
567.61
359.27
226.42
171.13
149.62
136.85
127.95
124.13
123.16
122.29
125.23
138.46
163.8
189.53
997.09
784.33
533.58
351.53
239.85
172.67
130.13
100.12
77.22
60.71
50.56
45.73
44.89
46.84
50.08
53.22
56.09
59.96
67.47
82.41
108.86
149.18
197.75
234.34
238.09
211.56
174.32
146.7
144.43
178.21
255.55
366.12
470.06
545.88
609.04
649.29
619.04
502.81
361.17
260.92
210.52
188.88
179.03
174.58
174.15
176.3
181.41
194.86
223.21
265.44
302.67
1792.02
1482.93
1064.84
715.52
478.36
328.3
232.95
169.85
126.83
98.27
81.01
72.45
70.54
73.73
80.64
90.22
102.7
120.57
149.34
197.75
276.08
387.98
512.37
593.51
581.51
490.18
380.01
300.67
271.47
294.98
368.88
478.29
587.89
666.56
706.1
699.15
633.6
520.71
402.09
314.32
264.12
240.47
231.65
231.06
236.01
246.02
263.52
294.26
342.81
403.01
449.69
2513.94
2152.93
1613.3
1115.32
750.15
508.64
353.47
252.98
187.36
145.44
120.57
108.41
106.13
111.99
124.98
144.91
173.44
215.72
282.1
388.83
553.55
776.93
1008.9
1141.83
1093.27
901.86
685.03
528.54
455.56
459.04
525.98
634.72
747.82
826.61
850.06
811.85
717.29
590.6
468.39
376.83
320.74
292.17
281.57
282.44
291.8
309.69
339.26
385.44
449.71
521.1
571.55
SCALARS coverage float 1
LOOKUP_TABLE default
2.673
8.452
11.205
13.488
15.201
16.123
17.13
18.741
20.1
21.352
22.618
23.817
24.974
26.101
27.056
27.632
28.156
28.728
28.782
28.993
29.237
29.491
29.769
30.0
30.141
30.216
30.141
29.999
29.767
29.487
29.229
28.972
28.651
28.327
28.0
27.601
27.043
26.092
24.969
23.814
22.616
21.354
20.116
18.875
17.489
16.07
14.677
13.085
11.304
8.153
2.552
1.186
3.449
3.904
4.972
5.638
6.07
6.509
7.23
7.784
8.325
8.875
9.397
9.895
10.367
10.809
11.085
11.309
11.639
11.676
11.823
11.956
12.086
12.217
12.324
12.408
12.425
12.407
12.323
12.215
12.082
11.949
11.805
11.642
11.47
11.284
11.059
10.796
10.359
9.89
9.393
8.873
8.327
7.794
7.234
6.64
6.056
5.472
4.776
3.998
3.291
1.16
0.754
2.005
2.371
3.051
3.479
3.805
4.105
4.555
4.894
5.22
5.555
5.873
6.174
6.457
6.728
6.9
7.047
7.269
7.298
7.413
7.505
7.59
7.672
7.737
7.797
7.8
7.797
7.736
7.67
7.587
7.499
7.399
7.289
7.173
7.041
6.883
6.718
6.45
6.169
5.87
5.553
5.22
4.898
4.543
4.175
3.793
3.395
2.941
2.441
1.899
0.75
0.546
1.322
1.731
2.129
2.461
2.719
2.939
3.259
3.517
3.755
3.995
4.221
4.438
4.643
4.824
4.94
5.066
5.207
5.231
5.321
5.389
5.448
5.503
5.546
5.591
5.588
5.591
5.545
5.501
5.445
5.383
5.31
5.231
5.146
5.048
4.93
4.816
4.636
4.433
4.217
3.992
3.753
3.513
3.262
2.984
2.693
2.392
2.082
1.767
1.246
0.549
0.486
1.017
1.411
1.681
1.961
2.165
2.35
2.605
2.827
3.021
3.213
3.398
3.579
3.756
3.905
4.007
4.13
4.236
4.275
4.35
4.411
4.464
4.512
4.55
4.587
4.588
4.586
4.549
4.51
4.461
4.406
4.341
4.271
4.192
4.106
4.004
3.899
3.75
3.574
3.394
3.209
3.017
2.818
2.615
2.386
2.144
1.897
1.658
1.424
0.965
0.482
0.504
0.923
1.307
1.585
1.837
2.025
2.195
2.419
2.645
2.844
3.031
3.213
3.388
3.556
3.694
3.802
3.921
4.015
4.067
4.139
4.2
4.252
4.3
4.339
4.372
4.378
4.372
4.338
4.298
4.249
4.195
4.132
4.061
3.98
3.894
3.797
3.691
3.551
3.383
3.208
3.026
2.838
2.639
2.438
2.224
1.999
1.781
1.57
1.307
0.883
0.497
0.537
0.873
1.228
1.527
1.779
1.975
2.136
2.333
2.555
2.768
2.966
3.151
3.331
3.497
3.634
3.749
3.857
3.946
4.007
4.075
4.135
4.186
4.234
4.274
4.302
4.314
4.301
4.273
4.232
4.183
4.13
4.07
3.998
3.917
3.83
3.738
3.632
3.495
3.327
3.145
2.959
2.761
2.561
2.358
2.153
1.943
1.735
1.511
1.221
0.843
0.526
0.495
0.729
1.001
1.264
1.499
1.685
1.839
2.007
2.189
2.377
2.563
2.742
2.909
3.059
3.185
3.291
3.388
3.468
3.532
3.593
3.649
3.696
3.74
3.779
3.803
3.812
3.802
3.777
3.738
3.693
3.645
3.59
3.524
3.447
3.365
3.277
3.18
3.058
2.908
2.741
2.566
2.384
2.202
2.023
1.842
1.657
1.464
1.248
0.992
0.71
0.483
0.488
0.665
0.885
1.116
1.336
1.523
1.687
1.85
2.022
2.198
2.375
2.546
2.706
2.85
2.976
3.084
3.181
3.267
3.338
3.404
3.467
3.521
3.57
3.608
3.636
3.644
3.635
3.607
3.567
3.519
3.464
3.403
3.331
3.251
3.161
3.068
2.966
2.846
2.705
2.548
2.38
2.205
2.03
1.855
1.677
1.495
1.305
1.099
0.876
0.653
0.478
0.427
0.547
0.7
0.871
1.04
1.193
1.334
1.471
1.608
1.748
1.887
2.022
2.15
2.266
2.372
2.468
2.557
2.639
2.714
2.782
2.849
2.907
2.956
2.995
3.02
3.029
3.02
2.994
2.954
2.905
2.847
2.781
2.708
2.628
2.542
2.453
2.36
2.258
2.145
2.02
1.886
1.748
1.606
1.463
1.318
1.169
1.016
0.856
0.692
0.54
0.42
0.39
0.477
0.586
0.711
0.839
0.961
1.077
1.189
1.299
1.408
1.515
1.62
1.719
1.814
1.903
1.986
2.066
2.142
2.214
2.283
2.349
2.408
2.458
2.497
2.521
2.53
2.521
2.496
2.457
2.407
2.347
2.282
2.21
2.134
2.055
1.974
1.891
1.803
1.71
1.611
1.508
1.4
1.289
1.176
1.06
0.942
0.821
0.698
0.579
0.473
0.386
